
Host: nrlogin1

Timers On : Mon Oct  9 10:46:02 2017
Timers Off: Mon Oct  9 10:46:02 2017

Wall Time:        0.34 seconds


-----------------------------------------------------------

***********************************************************
